# vtk DataFile Version 4.2
vtk output
ASCII
DATASET POLYDATA
POINTS 8678 float
48.5512 51.1427 37.3131 48.4076 51.0105 37.1561 48.304 51.035 37.3886 
48.6746 51.0752 37.0902 48.6962 51.2625 37.4721 48.8214 51.1802 37.258 
49.6759 51.2633 37.5846 49.7539 51.0511 37.4112 49.5044 51.1738 37.3973 
49.2991 48.9199 38.2264 49.4402 48.8744 37.9932 49.5616 48.9952 38.1858 
47.765 49.9245 37.9585 47.9097 49.7497 38.1752 47.8677 50.0224 38.2193 
48.0067 49.8458 38.3924 47.7924 50.2253 38.0158 47.8863 50.2962 38.2467 
51.982 52.0693 38.6226 52.2089 51.9173 38.5767 51.9873 51.8199 38.5566 
50.6509 49.4914 39.0546 50.6117 49.5347 38.8063 50.8397 49.6004 38.8667 
50.7625 49.6862 38.6385 50.9919 49.7771 38.7041 53.1808 53.7849 38.6266 
53.0352 53.6337 38.6869 53.0181 53.8492 38.7654 52.6518 51.1925 39.2232 
52.8146 51.3308 39.3313 52.797 51.1837 39.4662 51.7806 53.2377 39.2919 
51.5679 53.0755 39.357 51.6036 53.3188 39.4799 52.6399 54.5098 39.1364 
52.6309 54.2699 39.0915 53.4585 47.3383 39.9093 53.3862 47.5564 39.7998 
53.627 47.514 39.8519 53.2093 47.3788 39.8652 53.5601 47.7353 39.7722 
48.8479 50.1075 39.5977 49.0282 49.8924 39.5763 49.0563 50.0817 39.7525 
54.5945 47.8085 40.2466 54.4345 47.635 40.155 54.4001 47.8808 40.1184 
54.5356 48.0439 40.23 50.6217 52.6245 40.0535 50.4614 52.4537 39.871 
50.393 52.4523 40.1442 52.1577 47.8854 40.2927 52.3248 47.7527 40.1968 
52.1658 47.6425 40.3549 49.7309 51.7862 40.3447 49.735 51.9689 40.1421 
49.5644 51.7884 40.1439 50.5303 52.5403 40.3733 53.4427 46.6929 40.5198 
53.6376 46.8147 40.4117 53.6799 46.6595 40.6101 52.051 47.28 40.639 
51.9056 47.1925 40.8567 51.8389 47.4246 40.7315 51.9939 47.5353 40.5368 
52.2087 47.3875 40.4374 50.9122 49.0514 40.6078 50.9348 48.8929 40.839 
50.7322 49.0243 40.8356 53.1162 50.8493 40.8775 53.0563 50.8275 40.5962 
52.9628 51.0254 40.8084 53.0309 51.6791 40.9224 53.1889 51.6257 40.6605 
53.2647 51.8141 40.8283 50.3336 51.203 41.0758 50.5308 51.1452 41.2429 
50.518 51.3798 41.1193 53.8038 46.2232 41.5286 53.7754 46.2909 41.2921 
53.9963 46.3256 41.4119 54.6026 46.7746 41.2927 54.707 46.9387 41.1214 
54.7797 46.9485 41.3658 52.846 50.9524 41.6798 52.8099 51.0094 41.4565 
52.6316 51.0345 41.6244 52.6063 51.1282 41.4031 52.4155 51.1395 41.5825 
52.7898 51.0737 41.2247 53.319 52.7706 41.5797 53.0113 52.7038 41.5569 
53.273 52.5209 41.4544 54.1273 53.3405 41.5046 54.1612 53.6135 41.545 
53.9387 53.502 41.6378 53.0983 52.9769 41.6367 53.3739 53.0415 41.6686 
53.5903 52.8634 41.5534 53.6438 53.1256 41.6523 53.7165 53.6819 41.6868 
53.9537 53.7668 41.64 53.7431 53.9266 41.6252 53.7948 46.2226 42.3852 
53.566 46.1486 42.3455 53.734 46.113 42.2164 52.3319 48.8919 42.9674 
52.3928 48.6017 43.0127 52.536 48.7765 43.148 52.4585 48.3508 43.0495 
52.5785 48.5306 43.172 53.7555 49.1581 43.1257 53.8694 49.3396 42.9174 
53.6205 49.4468 43.068 52.5051 49.5627 43.1261 52.7006 49.4285 43.2721 
52.7345 49.6975 43.2335 52.3529 49.9906 42.9509 52.5408 49.8475 43.1 
52.6147 50.141 43.0331 52.3729 50.2502 42.8986 53.9023 47.6394 43.3654 
53.6287 47.7127 43.4226 53.6875 47.4226 43.314 53.3578 47.8199 43.4204 
53.5792 47.9921 43.4715 53.8419 47.9048 43.4341 54.1396 47.6141 43.2377 
54.082 47.8418 43.342 54.0287 48.0888 43.37 54.2063 48.0095 43.2697 
52.8943 49.0476 43.366 53.0909 48.9331 43.4144 53.1079 49.1561 43.3886 
52.9091 49.2909 43.3567 48.1831 50.8919 37.2338 48.1023 50.8737 37.4628 
49.7987 49.1281 38.1322 49.6745 49.1075 38.3825 49.8681 51.3408 37.784 
50.0873 51.4182 37.9799 50.1214 51.1667 37.7801 51.7628 51.9754 38.6217 
52.4451 51.7524 38.6559 52.4272 52.0303 38.5939 52.3876 52.2962 38.6088 
52.1891 52.1746 38.6163 52.1707 52.4051 38.7076 50.9011 49.5262 39.1126 
50.6968 49.4753 39.3172 48.808 49.9147 39.4317 49.0011 49.7144 39.389 
51.6363 53.5078 39.6261 51.7781 53.4704 39.4153 53.4037 46.8474 40.3324 
52.3648 47.5086 40.2527 49.6826 49.8413 40.2629 49.63 49.9686 40.4854 
49.5065 50.0659 40.2787 53.3273 50.7281 40.9674 53.2492 50.6749 40.7108 
52.284 47.137 40.5576 53.6718 50.4364 40.9279 53.4659 50.5487 40.806 
53.5367 50.6121 41.0539 53.1368 51.4544 40.4701 53.0129 51.4659 40.7132 
53.0223 51.2778 40.5241 50.8014 48.9266 41.0512 50.6088 49.0569 41.0581 
50.1568 51.034 41.0304 50.1376 51.2515 40.9185 49.9708 51.0657 40.8858 
50.8726 48.8364 41.2614 50.8552 48.9627 41.5063 50.7219 49.0163 41.273 
52.9867 50.9535 41.2947 53.0278 52.4146 41.4512 53.2456 52.2936 41.3136 
53.8974 53.2281 41.5933 54.1596 53.8894 41.5666 54.0558 54.165 41.5464 
53.9426 53.9854 41.6051 53.9746 50.3283 41.8892 54.0797 50.1612 42.0422 
54.1352 50.1474 41.789 54.2089 49.9552 41.9532 53.4586 53.6 41.6812 
53.6855 53.4061 41.7 52.8548 46.3428 41.99 53.1179 46.2465 42.1089 
52.9407 46.3826 42.2734 51.9211 47.0437 42.0445 52.0629 46.8713 41.9423 
52.1085 46.9562 42.1709 52.4051 51.4946 38.754 52.2095 51.6507 38.6004 
48.2156 51.0247 37.6392 47.7187 50.1578 37.7713 51.0843 49.6651 38.9273 
52.3541 52.5324 38.687 50.4142 49.4705 39.2561 51.135 52.4691 39.2666 
50.9265 52.4562 39.3927 51.0639 52.6303 39.4448 50.8643 52.5954 39.5931 
51.004 52.7838 39.6572 52.5084 47.6411 40.0811 49.8704 49.6813 40.2452 
49.7809 49.7313 40.0559 49.9973 49.6308 40.0569 49.541 50.2156 40.5155 
53.4756 46.5397 40.7204 53.7178 46.502 40.8153 53.876 46.8021 40.5122 
53.9186 46.6471 40.7187 53.5994 50.3284 40.6875 53.0446 50.6815 40.3503 
53.0064 50.9083 40.3471 50.9594 48.7618 41.043 52.7831 52.5629 41.4937 
53.0391 52.1814 41.3285 53.5304 52.6209 41.4308 54.1247 49.9707 42.1945 
51.8935 46.9902 41.804 52.0519 46.8285 41.6914 52.7227 48.6834 43.2851 
52.5072 49.2886 43.1393 52.696 49.1671 43.2744 52.5468 51.3438 38.9714 
52.9215 51.6228 39.0805 52.6598 47.7901 39.9334 52.465 47.887 40.0578 
52.6109 48.0401 39.9247 49.677 49.7478 39.8605 49.9174 49.6577 39.8623 
53.2148 52.0919 41.1771 53.1469 51.901 41.0488 53.3577 52.0021 40.9837 
53.8398 52.9696 41.5019 50.9618 49.4757 39.3708 50.7615 49.4589 39.5715 
50.4958 49.4976 39.5249 53.5866 46.9782 40.2289 49.2451 50.0637 39.9072 
49.4416 49.883 39.8828 49.3993 50.0582 40.0651 53.2054 50.0747 40.0956 
53.2907 50.2475 40.2955 53.4226 50.0033 40.2386 53.956 46.4973 40.9321 
52.7338 52.822 41.5033 52.9128 53.1804 41.558 53.4867 46.5247 42.7558 
53.7576 46.5203 42.7179 53.656 46.7053 42.8751 49.2406 49.7047 39.5125 
53.3905 46.7278 42.9108 53.2114 46.5841 42.758 53.3101 46.3946 42.5844 
52.9003 53.2468 38.6491 52.9402 53.0579 38.5776 52.7581 53.0723 38.6847 
52.1137 49.7374 39.3702 51.9859 49.5405 39.4821 51.8881 49.6634 39.3065 
48.7722 49.7223 39.2696 53.814 50.2284 40.836 52.7574 48.4635 43.2991 
52.8199 48.2615 43.3124 52.9196 48.4047 43.3821 52.152 49.8617 42.8049 
52.3223 49.7083 42.9635 49.5748 49.8818 40.0684 49.5853 51.3722 40.4596 
49.7694 51.5624 40.5205 49.5692 51.5893 40.3231 53.7475 46.3809 41.0496 
53.5344 46.3044 41.1901 53.505 46.4085 40.9469 51.1116 50.4367 41.94 
51.0336 50.1976 41.9419 51.2539 50.2736 42.0529 52.271 48.4076 42.8883 
53.0538 48.2246 43.411 49.8422 49.135 37.1666 49.9472 49.2934 37.3538 
54.3751 52.4856 40.5104 54.417 52.4928 40.2493 54.5402 52.6432 40.4082 
51.1543 49.5561 39.1645 52.9816 54.0542 38.8347 50.5388 49.2634 40.4128 
50.7902 49.2007 40.4128 50.6383 49.1342 40.621 52.4326 47.251 40.3364 
49.7852 49.762 40.4562 49.6619 50.1188 40.7029 49.7381 49.8732 40.6827 
49.7681 50.0217 40.8912 52.4234 51.2915 41.397 52.9451 49.5451 43.3159 
47.9719 50.1161 38.4426 47.9698 50.3819 38.4574 48.0809 50.2277 38.6964 
51.3099 51.9476 38.7117 51.0681 51.9979 38.8177 51.2615 52.1361 38.9051 
52.5055 54.6502 39.3267 52.4762 54.4035 39.2724 54.2197 47.7204 40.0183 
50.1158 49.4649 40.4033 50.306 49.3513 40.4112 50.1476 49.3535 40.5771 
50.3626 49.2159 40.6356 53.7064 52.5017 41.2521 53.7791 52.7281 41.3824 
54.1392 50.1262 41.5264 54.2518 49.9048 41.6738 54.22 49.9191 41.3887 
54.3054 49.7119 41.4935 52.7128 53.0808 41.4634 52.5509 52.6895 41.4497 
53.1507 53.2494 41.6599 52.1096 50.9026 42.0417 51.7731 50.6887 42.1509 
52.0469 50.7614 42.2184 54.0012 49.9705 42.3955 53.9854 50.152 42.2614 
53.3072 46.9394 43.0397 53.478 47.0847 43.1432 53.2401 47.1624 43.148 
53.6269 47.2127 43.2069 53.9811 49.098 42.958 53.9732 48.3415 43.3521 
53.7888 48.1706 43.4454 52.8817 52.8403 38.5656 51.1997 52.3063 39.0925 
51.4329 52.3045 38.9809 52.8395 53.6966 38.8398 52.6337 53.5193 38.9144 
52.6356 53.7927 38.9846 54.3636 52.7242 40.9325 54.5732 52.8939 40.8287 
54.41 52.991 41.1127 52.9626 50.979 41.054 53.1609 50.8554 41.1358 
51.5496 47.7293 42.2119 51.7076 47.5593 42.2869 51.7274 47.7759 42.3818 
53.0903 48.7113 43.4296 53.2826 48.8277 43.4273 52.9402 51.3531 39.5084 
54.9683 47.2662 41.0417 55.0278 47.2819 41.2741 54.8757 47.1076 41.1996 
52.7963 49.9448 43.1481 49.9839 49.3094 38.6332 49.9433 49.2553 38.3517 
50.1644 49.3945 38.449 51.0373 49.4421 39.6534 51.2294 49.4771 39.4117 
53.4774 52.2582 38.8533 53.6124 52.1911 39.037 53.4516 52.0987 38.9801 
49.5193 49.7032 39.6438 49.4648 49.5576 39.388 51.6531 49.612 39.2597 
51.7936 49.7918 39.1437 52.822 53.9279 38.9058 49.7571 51.3214 40.6282 
53.0577 50.2017 42.9673 52.8378 50.3168 42.9495 52.871 50.1313 43.0585 
52.8952 48.8152 43.3746 49.4564 48.7745 37.5791 49.0906 48.7194 37.7579 
53.5716 46.2204 41.4369 51.8245 49.1353 40.0527 51.7058 49.2977 39.8496 
51.9631 49.2644 39.8172 49.3382 51.8214 39.7063 49.5129 51.9226 39.7647 
49.5292 51.9585 39.5175 53.5874 48.6324 39.8425 53.8101 48.5386 39.9419 
53.6403 48.3825 39.8129 52.8051 54.3654 38.9888 52.9306 54.259 38.8949 
52.802 54.1496 38.9567 52.7039 48.9201 43.2748 50.0642 49.5679 40.2396 
49.9444 49.5911 40.422 51.4141 47.664 41.999 51.3851 47.9444 42.0974 
51.2799 47.8266 41.8418 54.1166 49.777 42.3382 49.7589 49.2041 38.6051 
49.4613 50.7186 40.524 49.6128 50.6403 40.7082 49.6029 50.9036 40.657 
54.0673 53.0828 41.4344 53.2905 48.6076 43.4566 51.276 52.6501 39.3069 
50.7183 51.3345 41.2846 54.0934 50.1094 41.2779 53.0749 54.1394 38.7916 
49.795 52.0677 39.4683 49.6722 52.0036 39.2668 49.6202 50.373 40.7202 
[...]
POINT_DATA 8678
SCALARS ShellThickness double
LOOKUP_TABLE default
0.19724311270497 0.19728685051027 0.19712919179224 0.19741445699909 0.1972099851518 0.19734801631825 0.19681895579251 0.19671411446015 0.19693445293693 
0.19487813336234 0.19502044478093 0.19443101225397 0.19639366197597 0.19604575395817 0.19605732970182 0.19567990967513 0.19637143516488 0.19606376460036 
0.19526532318908 0.1947788313959 0.19482196593728 0.18399710665324 0.18783671853943 0.18390436883507 0.18787534367725 0.18645341684987 0.19702251551345 
0.1968486372307 0.19703308973472 0.18991420397006 0.19042155116218 0.1885369366407 0.19714973178336 0.19677761549469 0.19649211684951 0.19757922898597 
0.19753545570159 0.054025385469321 0.05439342926829 0.054065878850461 0.054287709155468 0.054425334434241 0.19150638420051 0.19008740799233 0.18963619605837 
0.053457664742286 0.053464697434108 0.053715823175116 0.053643431982567 0.19465223068515 0.19488366696814 0.19425628373775 0.055370767306381 0.055177396286427 
0.054660551601511 0.19226651777216 0.19331548657656 0.19316339889351 0.19379777950989 0.053178781071416 0.053220995031827 0.053014357946691 0.05406306982046 
0.053893845117071 0.054262545858259 0.054483289878496 0.054220705792493 0.060809753050048 0.05864175187827 0.05957306812829 0.074275422861396 0.081139499360338 
0.094208336334139 0.17962715423196 0.18432348952329 0.18620757712005 0.18007616933679 0.16616042045617 0.18028665254406 0.052395279434144 0.052519838654659 
0.052407823331568 0.05242779429061 0.052541521790888 0.052412411576346 0.062564906609428 0.067390703908058 0.066587409858202 0.074440479938353 0.070228420560662 
0.075630066244725 0.19320399396409 0.19220468098506 0.19195382735303 0.19566417414033 0.19604492197602 0.19570079004324 0.19343099852351 0.19411693515537 
0.19402840558846 0.19473784516768 0.19572545315091 0.19605417193292 0.19605917055514 0.052031906180346 0.052085241308898 0.052104892158106 0.053713394311555 
0.053397497927411 0.053407064678847 0.053163368730742 0.053180630883833 0.053265361410903 0.053491355767816 0.053551528295917 0.054182330574215 0.053827111147035 
0.054147772427743 0.055214610983192 0.0546344512313 0.055093531347451 0.055818063392452 0.052229396767125 0.052269485754653 0.052109450119997 0.052338275122457 
0.05239878228117 0.052355648040209 0.052307099282427 0.052368897734481 0.052453603141709 0.052474467481584 0.053281030645027 0.053125959900856 0.053319910308297 
0.053514669605728 0.19718735674224 0.19702488373558 0.19422301905367 0.19367741869432 0.1967463444219 0.1967103125518 0.19588197674439 0.19532008402837 
0.19412344198119 0.19478820690652 0.19542729795747 0.19542698158891 0.19579763373238 0.1760780341659 0.17494681060582 0.19183297718567 0.19128227258388 
0.19641335880789 0.19683282031947 0.053399956589558 0.054671774749056 0.15360856503489 0.15515990654273 0.17397256182966 0.066103116917896 0.07038574632793 
0.053837110593962 0.060832261795706 0.064143304276636 0.062089927882854 0.17973485975096 0.1764432933376 0.1674358530335 0.058010995108442 0.058912563983841 
0.17390310131517 0.18268365654475 0.18099485728056 0.056907312992377 0.056432550211598 0.057539958084195 0.067152699826118 0.19035258451715 0.1902499866589 
0.19525288205532 0.19634775786867 0.19653701447365 0.19629644826895 0.056126668365252 0.055446253513937 0.055747186373751 0.055115599289189 0.19533262837538 
0.19529146429363 0.052450906059872 0.052307270043283 0.052328927818224 0.05297157220393 0.052920352894202 0.052854190466887 0.19329232383503 0.19421196608389 
0.19685606623544 0.19663208367562 0.18097168921184 0.19579746271713 0.18083640285483 0.19631792883281 0.19602694150034 0.19604149930474 0.19570398418568 
0.19568530914665 0.055011173440283 0.11895905221312 0.16075756801551 0.13258700903452 0.16745669034703 0.05297841638751 0.052829405935876 0.053035641422262 
0.052847039875103 0.062122863074706 0.097711373580613 0.13565896431354 0.057356566592018 0.19046720631773 0.18791837218768 0.19310368561019 0.054907212806952 
0.053045235426074  0.053088012339 0.053076016983816 0.053830038425311 0.053534397711924 0.19204975324446 0.19239471342637 0.055275453301544 0.055593115134768 
0.055940158144189 0.1783977498443 0.16425843693205 0.18903488060701 0.18610411371049 0.18913675855263 0.19469625469641 0.15599819535117 0.15278012335321 
0.16645277535953 0.053452709792839 0.18684831106378 0.18268186811903 0.1824242479418 0.06780769324421 0.067322994424714 0.062832102332489 0.052680918475422 
0.19200151098317 0.19377491182829 0.051971388347237 0.05189750870425 0.051887202803793 0.18923891400529 0.051965152155958 0.052056312085401 0.052063914160358 
0.19644355329495 0.19618068793801 0.19627660677019 0.13032851790076 0.098473581090695 0.15135496448238 0.19263310736766 0.059496316340556 0.052909830004048 
0.052768646913983 0.052806856369532 0.055217051338827 0.054655807555155 0.17383081206022 0.19039043642655 0.19062776957804 0.19196995102049 0.052664635713025 
0.05263471074054 0.052797418525526 0.062522409515352 0.060705559453777 0.060015122297813 0.053393608664388 0.052666659489599 0.19599242651801 0.19560035645568 
0.19484337369787 0.19485725395802 0.19532876948211 0.16902138846506 0.19719128751493 0.066164094592758 0.06433853419971 0.062019347331321 0.054218281577911 
0.10052751314472 0.13184134226375 0.097333000244681 0.08756774133761 0.085528428175634 0.053799147201108 0.19569954035099 0.19581574752507 0.19535113349967 
0.19574407705461 0.19613791517335 0.19611409221986 0.19746957083906 0.19746152617437 0.053742171937989 0.07410686634841 0.070328479154805 0.068230404799104 
0.064215522203877 0.1933799443378 0.19421771101837 0.056344131449139 0.055517199735248 0.05605989980348 0.055392913814593 0.19312308504126 0.19089649578819 
0.19425677315579 0.063295108448289 0.061503611343494 0.060690355813449 0.054713020552629 0.055162622441972 0.051941569236963 0.051968232766247 0.051974737220252 
0.052036853309544 0.053234853494499 0.052583070470741 0.052486749782119 0.1958895340934 0.1966047516117 0.19633745799343 0.19690044702749 0.19679602294661 
0.19725786653685 0.19498843491971 0.19550956886891 0.19539928229991 0.075576161459099 0.066821600362873 0.05351099764609 0.053275058881936 0.053350848238732 
0.052954682788903 0.052982516649028 0.18889461878808 0.052654556057005 0.05255841003125 0.052519330467436 0.054513766582514 0.19197143438756 0.1932492904906 
0.19195529982311 0.098512510074735 0.13713173963199 0.19505452872325 0.19477390744317 0.19462213726246 0.18570618864963 0.18885899277804 0.1498196947266 
0.17299452747437 0.19708707570973 0.18829510578139 0.054649653578643 0.0551183734729 0.054688039127165 0.053105097504225 0.19574085638124 0.19583058199797 
0.052490834563467 0.063982803806091 0.07093767469965 0.067664197220575 0.19445614883763 0.19438236572687 0.19493915735156 0.056046774288651 0.055347507514198 
0.055397631717609 0.19755466789583 0.19749372313274 0.19744203982049 0.053269312458132 0.088261309517394 0.087356732776875 0.053654367988481 0.05383790259393 
0.053967232460491 0.054470092141351 0.19268921628036 0.18460562954626 0.17662111632293 0.18425526525462 0.19531975097038 0.052826382218468 0.19664693937868 
0.16719106227026 0.056935998338312 0.19727723003599 0.19518410439523 0.19546373314632 0.16357999831293 0.17886456253353 0.17677158909373 0.18467325415051 
0.19594233009406 0.19556820712158  0.196638106625 0.19639178180193 0.06748927627453 0.077162177676187 0.1960458956927 0.053481319519431 0.055214152865384 
0.054939597226167 0.054598078293744 0.054673726114838 0.05273137163624 0.05283127925628 0.052679998022392 0.1959479585945 0.19668168610789 0.052632635181813 
0.05246874824419 0.05378958214544 0.053510615692277 0.19601495872847 0.19556975224535 0.19720899216911 0.19715391790372 0.19680583002748 0.10008255413631 
0.053969353373077 0.053970102748686 0.053550854490508 0.053834824371439 0.057013120603649 0.05689899718319 0.16743240793939 0.19590762175728 0.19628305237137 
0.051983999422745 0.052063977972594 0.052077448688582 0.19510268807963 0.053096725116406 0.19709525712205 0.19654775825075 0.19404529567193 0.19328110853912 
0.19323224760822 0.19726646969593 0.19741422913738 0.19541408860627 0.052806407237312 0.052764393137797 0.080497973216912 0.054326881604814 0.054469211444596 
0.1970085266685 0.053933251621557 0.05369527313645 0.054094872618983 0.05300828289256 0.053219514991012 0.053019026302622 0.19497736702427 0.19537312307465 
0.19489260781143 0.053438577657433 0.054995240839265 0.055674022947906 0.05574114435235 0.060969266524174 0.05957951007681 0.059610921472316 0.052307310381541 
0.053145096756498 0.18734197258214 0.057392511012349 0.056537953019053 0.056430966687199 0.054874505913108 0.054449837517736 0.052119251984475 0.053114026232655 
0.062414407414372 0.18654968075896 0.18934861903691 0.18571528992537 0.066394614963316 0.066503385614777 0.07386432066672 0.053141244298449 0.052969917769406 
0.056001509000769 0.05678855149868 0.059815415538471 0.059578784428924 0.057976746312066 0.058125107005861 0.052535244010658 0.19503244224238 0.052724264585989 
0.053258911121552 0.053330540684203 0.053506830136485 0.19377971179884 0.076810038789155 0.053932020168195 0.081872989747805 0.10130997547423 0.094864497922762 
0.052177444689673 0.052183764883456 0.074930787077617 0.068392544600674 0.19240732781036 0.19313321427503 0.19039727730239 0.19673273560693 0.19662482497924 
0.19684789183207 0.19473520937337 0.19538428238731 0.19483090531176 0.053229094565339 0.19678552850591 0.19656249469613 0.1927049971049 0.19141161559669 
0.19265012207391 0.054739921281177 0.055204499393022 0.054363817474528 0.057781026489018 0.19480100532664 0.052294047532599 0.052395198679709 0.052395371167553 
0.052513417632616 0.056463367671218 0.18917961833401 0.19239916004635 0.19428617407907 0.19579399652145 0.1953326886147 0.19359373568617 0.19304861442172 
0.19387856512896 0.19516299067956 0.19468716182606 0.1956975155298 0.13104834907675 0.19365805975004 0.19333891203893 0.19399317761998 0.19610682445876 
0.052433653173359 0.05232215780837 0.19632417176491 0.19662537340198 0.19676903187745 0.055824755972743 0.1924798533835 0.19590322884106 0.058846336306477 
0.058598825936472 0.060807600161899 0.052560959332083 0.19646747704921 0.19709159627281 0.1970138917005 0.19720881848357 0.053449474294705 0.065874496662271 
0.05281720321813 0.052697265776143 0.19659386276138 0.19407762363349 0.1934374972913 0.19712595482551 0.19708317738065 0.053022658813824 0.053006336978944 
0.053175403315477 0.051929857791295 0.054343918524751 0.054589508247815 0.054069324993806 0.058829418845698 0.053521071295509 0.057704165596894 0.056576371972595 
0.05771725812141 0.19742421887101 0.19736500124973 0.19725914927902 0.053025981690592 0.053048954266993 0.052875761367905 0.17855836142592 0.19724018414755 
0.19707592301247 0.19703902070323 0.19528058006046 0.053489921822859 0.053653304101663 0.053722804608277 0.056879701447076 0.052583515724096 0.056584773634012 
0.078306719262786 0.077110105013478 0.19114904283911 0.053325043081151 0.1892912658661 0.052421144160485 0.052023588613564 0.19701492108151 0.19712605679267 
0.19396375453479 0.05973670357336 0.062442270311325 0.19655685733501 0.19654186242034 0.19558775691225 0.19558730856243 0.19547529946589 0.18788796178805 
0.057507268571838 0.056520228474434 0.056583210565761 0.19682444902972 0.19715379107153 0.19626905707252 0.19489142272283 0.05244682044135 0.19216414876765 
0.19537114727956 0.19595345167395 0.19483022486684 0.19542376807331 0.053247900690131 0.053243926725274 0.053311317381752 0.19649934623998 0.052961587868816 
0.053034841707049 0.059363855856202 0.19469378882652 0.19412027576377 0.052921537021657 0.18896687217692 0.18587245551883 0.19688556534244 0.19604092204767 
0.05414829831793 0.19693075344908  0.197111504584 0.19495915432115 0.1973031961532 0.19745959393083 0.068086824063188 0.065870999339949 0.063352468864535 
0.060068991535968 0.11384828535931 0.19527178531372 0.19105242346095 0.055175301154038 0.055786925818114 0.055291713523729 0.19675970243479 0.19674140488191 
0.19347062810145 0.19452136923194 0.19390906451046 0.19381050928734 0.060882111585304 0.15141986843516 0.11437408666257 0.052314664694914 0.052269826334934 
0.19358707911456 0.052089908957648 0.19045676297251 0.19657430678487 0.052286322794447 0.052174969068871 0.19542814587724 0.1958338402834 0.19580039924834 
0.05994461089407 0.062595583968079 0.063142379264786 0.18244279515289 0.18620047096987 0.18183451918775 0.054217609966425 0.054234900725785 0.05524277563779 
0.052529778121484 0.18674453852842 0.17989267793197 0.074838168468011 0.081717675255059 0.1962659531606 0.098472007700955 0.15111862293701 0.098981078128573 
0.19697068014973 0.05664807078441 0.053795674754665 0.054085035145018 0.054094585612879 0.19432081365751 0.19666902720377 0.19686613628031 0.19495048682941 
0.1954741396485 0.19466430723973 0.19740731103764 0.19397542930012 0.19696396855399 0.15510736775326 0.13599474289718 0.19424819586613 0.054515917544652 
0.051989773542833 0.053774016647071 0.053480726525985 0.19139109018755 0.19521166191349 0.19563257148224 0.17277389354209 0.14752602531258 0.052302043813184 
0.053109591272282 0.052991818694164 0.053177110144009 0.062525477470679 0.19438802088369 0.19511658719571 0.052422776183635 0.056536631191867 0.19526311029076 
0.052798762986609 0.067627434856986 0.075192036840475 0.077599118715481 0.19688474760318  0.193599351883 0.053788952049337 0.19625676129205 0.1960438580331 
0.19633297615088 0.052005540629513 0.055733295002747 0.055789993640582 0.19577309996899 0.19544052086139 0.19349685048463 0.19564898167268 0.054112666760047 
0.052094744937257 0.19356827188539 0.054106446412324 0.19659724606773 0.19692116188069 0.19623057273993 0.19630092306063 0.054904558823536 0.054251768522064 
0.19098594786657 0.18755858352539 0.1891763804232 0.19027794333171 0.1962924630612 0.052283243939092 0.05238247207676 0.10486741591657 0.081933862172843 
0.19716355269072 0.19407729642009 0.19480611005594 0.052035951086457 0.055841180802337 0.19524003034519 0.19357852467052 0.087880572333674 0.11815504756701 
0.063426131855488 0.063986624136936 0.053771808411172 0.051952218318575 0.19506573952073 0.1954641304896 0.19534790452756 0.19477597269792 0.052026606178678 
0.19602348103607 0.15031548577631 0.19531808016725 0.052673754530772 0.054286079744619 0.17441565397033 0.1923425167355 0.19411813338496 0.19425102035157 
0.19409512174537 0.19464666735679 0.054941347142489 0.055197303896227 0.055466098044471 0.054756854220735 0.19470822007368 0.19517861654427 0.12019434399659 
0.19480377740307 0.052901285079164 0.052874536238802 0.19331778041815 0.19227402198599 0.084933615641138 0.075737169139333 0.19564425324769 0.069108416098868 
0.19635304118109 0.19722215189723 0.055904005442997 0.052867241174324 0.053870272181312  0.195579050949 0.058695113992355 0.055680816268911 0.061785636751069 
0.057461154881625 0.19433820157568 0.19447185490192 0.1950598220974 0.1952807410885 0.19477273293193 0.057150413180528 0.056465174949814 0.056163794738142 
0.19548228239292 0.17442184382717 0.19673891192762 0.054159907052354 0.18929407203937 0.19120296918272 0.19663725055264 0.071514263438304 0.19656968186193 
0.19648716420836 0.19631654484584 0.19636218009259 0.19677164832579 0.19590543286594 0.19677073303005 0.19640102700607 0.19657635129864 0.18662161809062 
0.19657332248762 0.052428864487121 0.19515526969151 0.19458188248559 0.057776023917741 0.057259808990921 0.055815815045725 0.19585564040628 0.063726542981885 
0.19730127289521 0.056104115651449 0.056938563647658 0.053833801999655 0.055252266757139 0.19594884459516 0.19372680543226 0.19299251141266 0.19393376282677 
0.19671145454607 0.19650588004913 0.052763802716192 0.05791347535486 0.056687634739726 0.067114236563067 0.19104000136366 0.1943901351022 0.053821331652853 
0.19456434250502 0.19473460837839 0.19418474459473 0.054873462183638 0.19629368881059 0.18588622587933 0.057252975948181 0.052292219124081 0.053486114215404 
0.053247829373111 0.18968577037277 0.17663505047724 0.17699474765409 0.15868339573314 0.059420033604003 0.19283830799556 0.19362217640183 0.19297837277951 
0.052666344168619 0.052624935645577 0.15254670497995 0.053502546540443 0.19610075402246 0.10244094750195 0.16641213032801 0.19684658612694 0.19689654524658 
0.053266873972391 0.19662961297353 0.19709715344309 0.055430069653981 0.19579275265139 0.19251240722299 0.053246388572041 0.053237256331144 0.16577257111556 
0.19454196574227 0.18006775377757 0.053211670651122 0.054163695792658 0.19694016408851 0.18688203191991 0.19524450704038 0.058820940962375 0.05391670260267 
0.19654630956956 0.18880605716352 0.061034053790267 0.063204215215803 0.053647103237288 0.19598070527983 0.19330625228955 0.18362880119079 0.18291106020786 
0.052589965723636 0.05227657394541 0.052382977475859 0.19520103249001 0.19504676806072 0.19466908885504 0.057961752506068 0.056703732864822 0.19629172517513 
0.19495306303039 0.077204812908093 0.19478386592024 0.1952575404509 0.19565660425585 0.19581233016953 0.053242925963341 0.19144843411586 0.1926568171461 
0.19192955949509 0.19319233900756 0.054638301508957 0.052572639053142 0.17248957275475 0.19525742176344 0.18549486616755 0.19235216786138 0.052339064269418 
0.052443221737937 0.19655964924202 0.095416849724311 0.05303391695941 0.18705740291979 0.18323156386323 0.19605270544554 0.0535207517993 0.053413472453117 
0.053300617551506 0.19609409098282 0.18838751686755 0.053428429440092 0.053423244174114 0.10601036476662 0.05297692122175 0.19322900434512 0.19659380639123 
0.076468263512483 0.060796689394943 0.052190743643682 0.19631418430784 0.19620746858171 0.052316012848577 0.052208501293612 0.052896876001483 0.052740163916988 
0.14510765166499 0.18439668559268 0.19323651345605 0.059241047825524 0.19519298976405 0.052108104361751 0.058100927785756 0.054135569194893 0.19691866763458 
0.19536402418316 0.19410943872886 0.085154235151331 0.19569869994961 0.19075045436508 0.1906554113823 0.19076597619378 0.18872754967672 0.19647169723574 
0.053742729501271 0.0524588032543 0.052931716964054 0.053066817968958 0.19606333801203 0.053184192133104 0.05329580484582 0.053539058447159 0.056430132127094 
0.056089373595531 0.05293566863858 0.18896020756908 0.19597474092698 0.052816718691876 0.19510193104423 0.19389715910981 0.052465234548831 0.05255741041491 
0.054733577292084 0.19718405157705 0.1492461650679 0.19681871048889 0.19656995516973 0.073292066310294 0.19440324626081 0.19494644519238 0.19609919185277 
0.05782815606518 0.19402029041125 0.18803678520102 0.053149600631281 0.052016163452035 0.1817051362902 0.19632733707359 0.19634032743711 0.053756402017341 
0.19559757467735 0.19157923723934 0.19239381757335 0.19275494513547 0.18682752880055 0.18689859641383 0.18233547222576 0.19273198916878 0.19244466985397 
0.19142170302356 0.054703265587792 0.18585369699391 0.052970047495441 0.16310979212272 0.052220610963902 0.052936524992169 0.053716320320912 0.19467882860758 
0.19397627934868 0.062664669298634 0.058050051107532 0.05763610715393 0.19734008312078 0.19612598289382 0.19496419588565 0.19500916614186 0.19434422197388 
0.052075176867603 0.052888545876966 0.053071094029904 0.05307173094279 0.19582283104693 0.19614126427168 0.097736310540884 0.054694946961194 0.052909206328229 
0.055709141702922 0.055126144160473 0.053305994579866 0.19232293107228 0.16332765786596 0.05578631628343 0.053716742554159 0.19114906147607 0.19615249611172 
0.052414290884017 0.053273094972259 0.064069055356306 0.064499566280196 0.066934270840683 0.17795293292912 0.17634871105658 0.18195072041471 0.063021774943215 
0.19425194141042 0.052734361471698 0.053663513487698 0.054261709275856 0.053924403392339 0.18618349631986 0.080645546145391 0.19245804637515 0.19628832382663 
 0.196369337696 0.19522040662991 0.052107146535864 0.19323592471211 0.19232095988977 0.066984437300584 0.053935633230454 0.19580251696603 0.19617794091257 