# vtk DataFile Version 5.0
vtk output
ASCII
DATASET UNSTRUCTURED_GRID
POINTS 2434 float
0 0 0 5 4 4.37916 2 4 2.70767 
0 4 0 0 2 0 2 2 1.71723 
5 0 4.7467 0.1 0 0.108192 0.2 0 0.216312 
0.3 0 0.324362 0.4 0 0.432252 0.5 0 0.539989 
0.6 0 0.647505 0.7 0 0.754847 0.8 0 0.861963 
0.9 0 0.968885 1 0 1.07566 1.1 0 1.18231 
1.2 0 1.2889 1.3 0 1.39549 1.4 0 1.50215 
1.5 0 1.60893 1.6 0 1.71589 1.7 0 1.82307 
1.8 0 1.93049 1.9 0 2.03812 2 0 2.14589 
2.1 0 2.25373 2.2 0 2.36151 2.3 0 2.46909 
2.4 0 2.57625 2.5 0 2.68278 2.6 0 2.78848 
2.7 0 2.89313 2.8 0 2.9965 2.9 0 3.09838 
3 0 3.19861 3.1 0 3.29701 3.2 0 3.39333 
3.3 0 3.48764 3.4 0 3.5797 3.5 0 3.66948 
3.6 0 3.75689 3.7 0 3.84192 3.8 0 3.9245 
3.9 0 4.00465 4 0 4.08244 4.1 0 4.15792 
4.2 0 4.23103 4.3 0 4.30189 4.4 0 4.37059 
4.5 0 4.43725 4.6 0 4.50203 4.7 0 4.56497 
4.8 0 4.62646 4.9 0 4.68681 5 0.1 4.71628 
5 0.2 4.68625 5 0.3 4.65648 5 0.4 4.62755 
5 0.5 4.59914 5 0.6 4.57186 5 0.7 4.54532 
5 0.8 4.51977 5 0.9 4.49529 5 1 4.47199 
5 1.1 4.44956 5 1.2 4.42854 5 1.3 4.40851 
5 1.4 4.3898 5 1.5 4.37243 5 1.6 4.35635 
5 1.7 4.34163 5 1.8 4.32816 5 1.9 4.31606 
5 2 4.30525 5 2.1 4.29587 5 2.2 4.28799 
5 2.3 4.28135 5 2.4 4.27619 5 2.5 4.27244 
5 2.6 4.27009 5 2.7 4.26915 5 2.8 4.26958 
5 2.9 4.2713 5 3 4.2744 5 3.1 4.27899 
5 3.2 4.28478 5 3.3 4.29192 5 3.4 4.30043 
5 3.5 4.31001 5 3.6 4.32113 5 3.7 4.33339 
5 3.8 4.34703 5 3.9 4.36222 4.9 4 4.37696 
4.8 4 4.37189 4.7 4 4.3648 4.6 4 4.35596 
4.5 4 4.34557 4.4 4 4.33364 4.3 4 4.3202 
4.2 4 4.30532 4.1 4 4.28886 4 4 4.27085 
3.9 4 4.25113 3.8 4 4.22961 3.7 4 4.20616 
3.6 4 4.18055 3.5 4 4.15267 3.4 4 4.12211 
3.3 4 4.08869 3.2 4 4.05187 3.1 4 4.01134 
3 4 3.96633 2.9 4 3.9163 2.8 4 3.86005 
2.7 4 3.79662 2.6 4 3.7241 2.5 4 3.64021 
2.4 4 3.54145 2.3 4 3.42194 2.2 4 3.27227 
2.1 4 3.07413 2 3.9 2.58746 2 3.8 2.47954 
2 3.7 2.37862 2 3.6 2.28554 2 3.5 2.19891 
2 3.4 2.11906 2 3.3 2.04599 2 3.2 1.97922 
2 3.1 1.91913 2 3 1.86534 2 2.9 1.81797 
2 2.8 1.7769 2 2.7 1.74216 2 2.6 1.71412 
2 2.5 1.69238 2 2.4 1.67771 2 2.3 1.67038 
2 2.2 1.67148 2 2.1 1.68349 1.9 2 1.65541 
1.8 2 1.59575 1.7 2 1.53383 1.6 2 1.46863 
1.5 2 1.39986 1.4 2 1.3274 1.3 2 1.25126 
1.2 2 1.17149 1.1 2 1.08819 1 2 1.0015 
0.9 2 0.911573 0.8 2 0.818621 0.7 2 0.722873 
0.6 2 0.624593 0.5 2 0.524074 0.4 2 0.421638 
0.3 2 0.317633 0.2 2 0.212427 0.1 2 0.106423 
0 1.9 0 0 1.8 0 0 1.7 0 
0 1.6 0 0 1.5 0 0 1.4 0 
0 1.3 0 0 1.2 0 0 1.1 0 
0 1 0 0 0.9 0 0 0.8 0 
0 0.7 0 0 0.6 0 0 0.5 0 
0 0.4 0 0 0.3 0 0 0.2 0 
0 0.1 0 1.9 4 2.63053 1.8 4 2.57239 
1.7 4 2.51675 1.6 4 2.45985 1.5 4 2.40003 
1.4 4 2.33611 1.3 4 2.26717 1.2 4 2.19237 
1.1 4 2.11092 1 4 2.02192 0.9 4 1.92424 
0.8 4 1.81654 0.7 4 1.69707 0.6 4 1.56341 
0.5 4 1.41262 0.4 4 1.241 0.3 4 1.03933 
0.2 4 0.79724 0.1 4 0.487773 0 3.9 0 
0 3.8 0 0 3.7 0 0 3.6 0 
0 3.5 0 0 3.4 0 0 3.3 0 
0 3.2 0 0 3.1 0 0 3 0 
0 2.9 0 0 2.8 0 0 2.7 0 
0 2.6 0 0 2.5 0 0 2.4 0 
0 2.3 0 0 2.2 0 0 2.1 0 
4.91006 1.54281 4.33125 2.08877 2.34786 1.85009 4.92514 2.04769 4.2779 
3.46471 0.0869187 3.62041 4.9134 2.55 4.2512 3.45 3.9134 4.09119 
2.95433 0.089801 3.13749 2.09191 2.85584 1.98515 3.95 0.0866025 4.02381 
2.44167 0.0874891 2.60803 3.95 3.9134 4.2305 1.45 1.9134 1.37053 
1.95 0.0866025 2.08183 1.04567 0.089801 1.11876 4.93201 1.0469 4.43059 
1.95 1.9134 1.73757 2.05 1.9134 1.85554 4.9202 2.94372 4.25898 
1.454 0.0838203 1.55246 3.05 3.9134 3.92399 1.05 1.9134 1.04346 
2 1.82679 1.83457 2.1 1.82679 1.9594 0.0953346 0.956041 0.0990075 
2.05 1.74019 1.92507 2.15 1.74019 2.04858 2.1 1.65359 2.00855 
2.2 1.65359 2.12952 2.25 1.74019 2.17727 2.3 1.65359 2.2531 
2.35 1.74019 2.30561 2.4 1.65359 2.37616 2.45 1.74019 2.43138 
2.5 1.65359 2.49701 2.55 1.74019 2.55357 2.6 1.65359 2.61477 
2.65 1.74019 2.67169 2.7 1.65359 2.72894 2.75 1.74019 2.78552 
2.8 1.65359 2.83923 2.85 1.74019 2.89496 2.9 1.65359 2.94552 
2.95 1.74019 2.99999 3 1.65359 3.04775 3.05 1.74019 3.10064 
3.1 1.65359 3.14592 3.15 1.74019 3.19698 3.1 1.82679 3.15436 
3.2 1.82679 3.24863 3.15 1.9134 3.20878 3.2 1.65359 3.24007 
3.25 1.9134 3.30073 3.2 2 3.26374 3.3 2 3.35314 
3.25 2.0866 3.31907 3.35 2.0866 3.40571 3.3 2.17321 3.37459 
3.4 2 3.43798 3.4 2.17321 3.45827 3.35 2.25981 3.43012 
3.45 2.25981 3.51066 3.4 2.34641 3.48549 3.5 2.34641 3.56274 
2.15 1.56699 2.08658 3.15 1.56699 3.19151 3.25 1.56699 3.28366 
2.65 1.56699 2.67437 3.45 2.43301 3.54051 3.55 2.43301 3.61433 
3.2 1.48038 3.23745 3.3 1.48038 3.3278 3.6 2.34641 3.63542 
3.5 2.51962 3.59501 3.6 2.51962 3.6653 3.4 2.51962 3.52 
2.0866 3.25 2.1927 3.25 1.39378 3.28382 3.35 1.39378 3.37253 
3.55 2.60622 3.64882 3.65 2.60622 3.71549 3.6 2.69282 3.70179 
3.7 2.69282 3.76476 3.3 1.30718 3.33066 3.4 1.30718 3.41788 
0.65 1.9134 0.670425 4.34174 0.0880002 4.30827 4.90492 3.36541 4.28703 
0.654399 0.08929 0.702468 3.2 2.17321 3.28602 2.05 1.56699 1.97219 
2.1 1.48038 2.04675 2 1.48038 1.93723 2.05 1.39378 2.00856 
1.95 1.39378 1.90239 2 1.30718 1.97102 1.9 1.30718 1.86703 
3.65 2.77942 3.75376 3.75 2.77942 3.813 3.8 2.69282 3.82356 
3.35 1.22058 3.37805 3.45 1.22058 3.4639 3.5 1.30718 3.50186 
3.55 1.22058 3.54664 3.6 1.30718 3.58262 3.65 1.22058 3.62629 
3.7 1.30718 3.66022 3.75 1.22058 3.70287 3.8 1.30718 3.73469 
3.25 1.22058 3.28908 3.85 1.22058 3.77644 3.85 2.77942 3.8682 
1.95 1.22058 1.93351 1.85 1.22058 1.83086 2.05 1.22058 2.03881 
3.7 2.86603 3.80459 3.6 2.86603 3.74497 3.7 1.13397 3.67085 
3.9 2.69282 3.87845 2.65 3.9134 3.6675 3.9 1.30718 3.80609 
3.3 1.13397 3.33841 3.2 1.13397 3.24781 0.0820076 1.35205 0.0847956 
4.91226 0.65103 4.5134 4.35 3.9134 4.30492 2 1.13397 1.99966 
2.1 1.13397 2.1057 3.95 1.22058 3.84705 3.95 2.77942 3.91964 
0.0950818 0.634588 0.0997617 3.65 2.95263 3.79849 3.55 2.95263 3.73855 
3.25 1.04737 3.299 3.15 1.04737 3.2069 4 2.69282 3.92965 
4 1.30718 3.8745 3.95 1.39378 3.8354 2.05 1.04737 2.06536 
2.15 1.04737 2.17174 2.6 1.82679 2.61313 3.2 0.96077 3.25984 
3.1 0.96077 3.16635 4.05 1.39378 3.90153 4 1.48038 3.86431 
4.05 1.22058 3.91475 4 1.13397 3.8891 4.05 2.77942 3.96751 
2.1 0.96077 2.13058 2.2 0.96077 2.23703 2 0.96077 2.02513 
3.6 3.03923 3.79483 3.5 3.03923 3.73465 4.1 1.48038 3.9281 
4.05 1.56699 3.89276 4.1 1.13397 3.95614 4.05 1.04737 3.93224 
4.1 2.69282 3.97735 4.15 1.56699 3.95415 4.1 1.65359 3.9207 
4.15 1.04737 3.99868 4.1 0.96077 3.97646 4.05 2.60622 3.94162 
2.15 0.874167 2.19536 2.25 0.874167 2.30171 3.15 0.874167 3.22094 
3.05 0.874167 3.12616 3.25 0.874167 3.31318 4.15 2.60622 3.98911 
4.1 2.51962 3.95547 4.2 1.65359 3.97962 4.2 2.51962 4.00272 
4.15 2.77942 4.012 4.1 2.86603 4.00422 3.55 3.12583 3.7938 
3.45 3.12583 3.73348 3.4 3.03923 3.66969 3.35 3.12583 3.66823 
3.3 3.03923 3.5995 3.25 3.12583 3.59753 3.2 3.03923 3.52355 
3.15 3.12583 3.52081 3.1 3.03923 3.44124 3.05 3.12583 3.43741 
3 3.03923 3.35191 2.95 3.12583 3.34656 2.9 3.03923 3.25477 
3.65 3.12583 3.8496 2.95 2.95263 3.26524 2.85 2.95263 3.16202 
2.85 3.12583 3.24741 2.9 2.86603 3.17781 2.8 2.86603 3.06877 
1.8 1.30718 1.76637 1.75 1.22058 1.73077 1.7 1.30718 1.6686 
1.65 1.22058 1.6328 1.6 1.30718 1.57296 1.55 1.22058 1.53636 
1.5 1.30718 1.47866 1.45 1.22058 1.44085 1.5 1.13397 1.49816 
1.4 1.13397 1.4015 1.45 1.04737 1.45857 1.35 1.04737 1.36084 
1.3 1.13397 1.30505 1.25 1.04737 1.26319 1.2 1.13397 1.20846 
1.15 1.04737 1.16535 1.1 1.13397 1.11148 1.05 1.04737 1.06712 
1 1.13397 1.0139 0.95 1.04737 0.968345 1.2 0.96077 1.22026 
0.9 1.13397 0.915602 0.85 1.04737 0.868931 0.9 0.96077 0.922095 
4.15 1.74019 3.94807 2.85 2.77942 3.09001 2.75 2.77942 2.97547 
2.8 2.69282 3.00227 4.2 1.48038 3.98892 3 0.96077 3.07027 
2.95 0.874167 3.02898 2.9 0.96077 2.97176 0.8 0.96077 0.821676 
0.85 0.874167 0.875212 4.2 0.96077 4.04234 4.15 0.874167 4.02176 
4.05 0.874167 3.95382 2.2 0.787564 2.25977 2.3 0.787564 2.36591 
3.2 0.787564 3.27591 3.3 0.787564 3.36702 4.2 2.86603 4.04552 
4.15 2.95263 4.03972 2.09065 3.5532 2.44627 0.8 1.13397 0.816522 
0.85 1.22058 0.863698 4.25 2.95263 4.07785 4.2 3.03923 4.07397 
4.25 1.04737 4.06244 4.25 1.74019 4.00447 4.1 0.787564 4.00076 
4 0.787564 3.93081 4.2 0.787564 4.06814 3.2 3.21244 3.59875 
3.6 3.21244 3.85126 2.9 3.21244 3.34468 2.8 3.21244 3.24353 
3.7 3.21244 3.90272 0.75 0.874167 0.773884 0.8 0.787564 0.827747 
1.15 1.22058 1.15491 3.95 1.56699 3.8283 0.75 1.22058 0.764832 
2.7 2.69282 2.88257 2.75 2.60622 2.915 2.25 1.04737 2.27917 
4.2 1.82679 3.97482 4.1 1.82679 3.91792 2.7 2.86603 2.95059 
4.3 2.86603 4.0837 4.3 3.03923 4.10897 4.25 3.12583 4.10693 
3.65 3.29904 3.9069 3.75 3.29904 3.95408 2.85 3.29904 3.34666 
2.75 3.29904 3.24356 4.15 0.700962 4.04871 4.25 0.700962 4.11559 
2.25 0.700962 2.3239 2.35 0.700962 2.42978 2.15 0.700962 2.21804 
3.25 0.700962 3.33132 3.35 0.700962 3.4214 4.3 1.82679 4.02864 
0.7 0.787564 0.725588 0.8 1.30718 0.812593 0.7 1.30718 0.713809 
0.75 0.700962 0.779739 0.85 0.700962 0.882266 0.65 1.22058 0.665045 
2.65 2.60622 2.79054 2.7 2.51962 2.82864 0.088913 1.65131 0.0925182 
0.0842715 0.345963 0.0895386 4.65 0.0866025 4.50983 4.92034 3.65585 4.32283 
2.2 0.614359 2.28207 2.1 0.614359 2.17634 3.7 3.38564 3.96061 
3.8 3.38564 4.00359 4.35 3.12583 4.13885 4.3 3.21244 4.13858 
4.15 1.9134 3.94663 4.05 1.9134 3.88919 3.6 3.38564 3.914 
3.35 1.56699 3.37208 0.65 0.700962 0.676814 4.35 1.74019 4.05786 
1.65 1.39378 1.60769 2.85 2.60622 3.03075 0.8 0.614359 0.834503 
0.9 0.614359 0.937451 2.8 3.38564 3.35297 2.7 3.38564 3.24797 
2.65 3.29904 3.12974 4.2 0.614359 4.09769 4.3 0.614359 4.1641 
4.35 0.700962 4.18005 4.4 0.614359 4.22816 3.3 0.614359 3.38727 
3.4 0.614359 3.47639 3.2 0.614359 3.29572 4.4 1.82679 4.07945 
0.6 1.30718 0.613997 3.45 0.700962 3.50894 3.5 0.614359 3.563 
2.6 2.51962 2.69984 2.65 2.43301 2.74362 2.6 3.38564 3.13136 
0.6 0.787564 0.622973 4.4 3.21244 4.16748 4.35 3.29904 4.1689 
4.45 0.700962 4.24215 0.55 1.22058 0.564387 2.4 0.787564 2.47197 
2.45 0.700962 2.53533 0.75 1.39378 0.762232 2.55 2.60622 2.65662 
4.1 2 3.91991 4 2 3.86191 2.15 0.527757 2.24024 
[...]
CELL_DATA 4866
SCALARS CellEntityIds int
LOOKUP_TABLE default
4 4 4 4 4 4 4 4 4 
4 4 4 4 4 4 4 4 4 
4 4 4 4 4 4 4 4 4 
4 4 4 4 4 4 4 4 4 
4 4 4 4 4 4 4 4 4 
4 4 4 4 4 6 6 6 6 
6 6 6 6 6 6 6 6 6 
6 6 6 6 6 6 6 6 6 
6 6 6 6 6 6 6 6 6 
6 6 6 6 6 6 6 6 6 
3 3 3 3 3 3 3 3 3 
3 3 3 3 3 3 3 3 3 
3 3 3 3 3 3 3 3 3 
3 3 3 5 5 5 5 5 5 
5 5 5 5 5 5 5 5 5 
5 5 5 5 5 3 3 3 3 
3 3 3 3 3 3 3 3 3 
3 3 3 3 3 3 3 5 5 
5 5 5 5 5 5 5 5 5 
5 5 5 5 5 5 5 5 5 
2 2 2 2 2 2 2 2 2 
2 2 2 2 2 2 2 2 2 
2 2 2 2 2 2 2 2 2 
2 2 2 2 2 2 2 2 2 
2 2 2 2 2 2 2 2 2 
2 2 2 2 2 2 2 2 2 
2 2 2 2 2 2 2 2 2 
2 2 2 2 2 2 2 2 2 
2 2 2 2 2 2 2 2 2 
2 2 2 2 2 2 2 2 2 
2 2 2 2 2 2 2 2 2 
2 2 2 2 2 2 2 2 2 
2 2 2 2 2 2 2 2 2 
2 2 2 2 2 2 2 2 2 
2 2 2 2 2 2 2 2 2 
2 2 2 2 2 2 2 2 2 
2 2 2 2 2 2 2 2 2 
2 2 2 2 2 2 2 2 2 
2 2 2 2 2 2 2 2 2 
2 2 2 2 2 2 2 2 2 
2 2 2 2 2 2 2 2 2 
2 2 2 2 2 2 2 2 2 
2 2 2 2 2 2 2 2 2 
2 2 2 2 2 2 2 2 2 
2 2 2 2 2 2 2 2 2 
2 2 2 2 2 2 2 2 2 
2 2 2 2 2 2 2 2 2 
2 2 2 2 2 2 2 2 2 
2 2 2 2 2 2 2 2 2 
2 2 2 2 2 2 2 2 2 
2 2 2 2 2 2 2 2 2 
2 2 2 2 2 2 2 2 2 
2 2 2 2 2 2 2 2 2 
2 2 2 2 2 2 2 2 2 
2 2 2 2 2 2 2 2 2 
2 2 2 2 2 2 2 2 2 
2 2 2 2 2 2 2 2 2 
2 2 2 2 2 2 2 2 2 
2 2 2 2 2 2 2 2 2 
2 2 2 2 2 2 2 2 2 
2 2 2 2 2 2 2 2 2 
2 2 2 2 2 2 2 2 2 
2 2 2 2 2 2 2 2 2 
2 2 2 2 2 2 2 2 2 
2 2 2 2 2 2 2 2 2 
2 2 2 2 2 2 2 2 2 
2 2 2 2 2 2 2 2 2 
2 2 2 2 2 2 2 2 2 
2 2 2 2 2 2 2 2 2 
2 2 2 2 2 2 2 2 2 
2 2 2 2 2 2 2 2 2 
2 2 2 2 2 2 2 2 2 
2 2 2 2 2 2 2 2 2 
2 2 2 2 2 2 2 2 2 
2 2 2 2 2 2 2 2 2 
2 2 2 2 2 2 2 2 2 
2 2 2 2 2 2 2 2 2 
2 2 2 2 2 2 2 2 2 
2 2 2 2 2 2 2 2 2 
2 2 2 2 2 2 2 2 2 
2 2 2 2 2 2 2 2 2 
2 2 2 2 2 2 2 2 2 
2 2 2 2 2 2 2 2 2 
2 2 2 2 2 2 2 2 2 
2 2 2 2 2 2 2 2 2 
2 2 2 2 2 2 2 2 2 
2 2 2 2 2 2 2 2 2 
2 2 2 2 2 2 2 2 2 
2 2 2 2 2 2 2 2 2 
2 2 2 2 2 2 2 2 2 
2 2 2 2 2 2 2 2 2 
2 2 2 2 2 2 2 2 2 
2 2 2 2 2 2 2 2 2 
2 2 2 2 2 2 2 2 2 
2 2 2 2 2 2 2 2 2 
2 2 2 2 2 2 2 2 2 
2 2 2 2 2 2 2 2 2 
2 2 2 2 2 2 2 2 2 
2 2 2 2 2 2 2 2 2 
2 2 2 2 2 2 2 2 2 
2 2 2 2 2 2 2 2 2 
2 2 2 2 2 2 2 2 2 
2 2 2 2 2 2 2 2 2 
2 2 2 2 2 2 2 2 2 
2 2 2 2 2 2 2 2 2 
2 2 2 2 2 2 2 2 2 
2 2 2 2 2 2 2 2 2 
2 2 2 2 2 2 2 2 2 
2 2 2 2 2 2 2 2 2 
2 2 2 2 2 2 2 2 2 
2 2 2 2 2 2 2 2 2 
2 2 2 2 2 2 2 2 2 
2 2 2 2 2 2 2 2 2 
2 2 2 2 2 2 2 2 2 
2 2 2 2 2 2 2 2 2 
2 2 2 2 2 2 2 2 2 
2 2 2 2 2 2 2 2 2 
2 2 2 2 2 2 2 2 2 
2 2 2 2 2 2 2 2 2 
2 2 2 2 2 2 2 2 2 
2 2 2 2 2 2 2 2 2 
2 2 2 2 2 2 2 2 2 
2 2 2 2 2 2 2 2 2 
2 2 2 2 2 2 2 2 2 
2 2 2 2 2 2 2 2 2 
2 2 2 2 2 2 2 2 2 
2 2 2 2 2 2 2 2 2 
2 2 2 2 2 2 2 2 2 
2 2 2 2 2 2 2 2 2 
2 2 2 2 2 2 2 2 2 
2 2 2 2 2 2 2 2 2 
2 2 2 2 2 2 2 2 2 
2 2 2 2 2 2 2 2 2 
2 2 2 2 2 2 2 2 2 
2 2 2 2 2 2 2 2 2 
2 2 2 2 2 2 2 2 2 
2 2 2 2 2 2 2 2 2 
2 2 2 2 2 2 2 2 2 
2 2 2 2 2 2 2 2 2 
2 2 2 2 2 2 2 2 2 
2 2 2 2 2 2 2 2 2 
2 2 2 2 2 2 2 2 2 
2 2 2 2 2 2 2 2 2 
2 2 2 2 2 2 2 2 2 
2 2 2 2 2 2 2 2 2 
2 2 2 2 2 2 2 2 2 
2 2 2 2 2 2 2 2 2 
2 2 2 2 2 2 2 2 2 
2 2 2 2 2 2 2 2 2 
2 2 2 2 2 2 2 2 2 
2 2 2 2 2 2 2 2 2 
2 2 2 2 2 2 2 2 2 
2 2 2 2 2 2 2 2 2 
2 2 2 2 2 2 2 2 2 
2 2 2 2 2 2 2 2 2 
2 2 2 2 2 2 2 2 2 
2 2 2 2 2 2 2 2 2 
2 2 2 2 2 2 2 2 2 
2 2 2 2 2 2 2 2 2 
2 2 2 2 2 2 2 2 2 
2 2 2 2 2 2 2 2 2 
2 2 2 2 2 2 2 2 2 
2 2 2 2 2 2 2 2 2 
2 2 2 2 2 2 2 2 2 
2 2 2 2 2 2 2 2 2 
2 2 2 2 2 2 2 2 2 
2 2 2 2 2 2 2 2 2 
2 2 2 2 2 2 2 2 2 
2 2 2 2 2 2 2 2 2 
2 2 2 2 2 2 2 2 2 
2 2 2 2 2 2 2 2 2 
2 2 2 2 2 2 2 2 2 
2 2 2 2 2 2 2 2 2 
2 2 2 2 2 2 2 2 2 
2 2 2 2 2 2 2 2 2 
2 2 2 2 2 2 2 2 2 
2 2 2 2 2 2 2 2 2 
2 2 2 2 2 2 2 2 2 
2 2 2 2 2 2 2 2 2 
2 2 2 2 2 2 2 2 2 
2 2 2 2 2 2 2 2 2 
2 2 2 2 2 2 2 2 2 
2 2 2 2 2 2 2 2 2 
2 2 2 2 2 2 2 2 2 
2 2 2 2 2 2 2 2 2 
2 2 2 2 2 2 2 2 2 
2 2 2 2 2 2 2 2 2 
2 2 2 2 2 2 2 2 2 
2 2 2 2 2 2 2 2 2 
2 2 2 2 2 2 2 2 2 
2 2 2 2 2 2 2 2 2 
2 2 2 2 2 2 2 2 2 
2 2 2 2 2 2 2 2 2 
2 2 2 2 2 2 2 2 2 
2 2 2 2 2 2 2 2 2 
2 2 2 2 2 2 2 2 2 
2 2 2 2 2 2 2 2 2 
2 2 2 2 2 2 2 2 2 
2 2 2 2 2 2 2 2 2 
2 2 2 2 2 2 2 2 2 
2 2 2 2 2 2 2 2 2 
2 2 2 2 2 2 2 2 2 
2 2 2 2 2 2 2 2 2 
2 2 2 2 2 2 2 2 2 
2 2 2 2 2 2 2 2 2 
2 2 2 2 2 2 2 2 2 
2 2 2 2 2 2 2 2 2 
2 2 2 2 2 2 2 2 2 
2 2 2 2 2 2 2 2 2 
2 2 2 2 2 2 2 2 2 
2 2 2 2 2 2 2 2 2 
2 2 2 2 2 2 2 2 2 
2 2 2 2 2 2 2 2 2 
2 2 2 2 2 2 2 2 2 
2 2 2 2 2 2 2 2 2 
2 2 2 2 2 2 2 2 2 
2 2 2 2 2 2 2 2 2 
2 2 2 2 2 2 2 2 2 
2 2 2 2 2 2 2 2 2 
2 2 2 2 2 2 2 2 2 
2 2 2 2 2 2 2 2 2 
2 2 2 2 2 2 2 2 2 
2 2 2 2 2 2 2 2 2 
2 2 2 2 2 2 2 2 2 
2 2 2 2 2 2 2 2 2 
2 2 2 2 2 2 2 2 2 
2 2 2 2 2 2 2 2 2 
2 2 2 2 2 2 2 2 2 
2 2 2 2 2 2 2 2 2 
2 2 2 2 2 2 2 2 2 
2 2 2 2 2 2 2 2 2 
2 2 2 2 2 2 2 2 2 
2 2 2 2 2 2 2 2 2 
2 2 2 2 2 2 2 2 2 
2 2 2 2 2 2 2 2 2 
2 2 2 2 2 2 2 2 2 
2 2 2 2 2 2 2 2 2 
2 2 2 2 2 2 2 2 2 
2 2 2 2 2 2 2 2 2 
2 2 2 2 2 2 2 2 2 
2 2 2 2 2 2 2 2 2 
2 2 2 2 2 2 2 2 2 
2 2 2 2 2 2 2 2 2 
2 2 2 2 2 2 2 2 2 
2 2 2 2 2 2 2 2 2 
2 2 2 2 2 2 2 2 2 
2 2 2 2 2 2 2 2 2 
2 2 2 2 2 2 2 2 2 
2 2 2 2 2 2 2 2 2 
2 2 2 2 2 2 2 2 2 
2 2 2 2 2 2 2 2 2 
2 2 2 2 2 2 2 2 2 
2 2 2 2 2 2 2 2 2 
2 2 2 2 2 2 2 2 2 
2 2 2 2 2 2 2 2 2 
2 2 2 2 2 2 2 2 2 
2 2 2 2 2 2 2 2 2 
2 2 2 2 2 2 2 2 2 
2 2 2 2 2 2 2 2 2 
2 2 2 2 2 2 2 2 2 
2 2 2 2 2 2 2 2 2 
2 2 2 2 2 2 2 2 2 
2 2 2 2 2 2 2 2 2 
2 2 2 2 2 2 2 2 2 
2 2 2 2 2 2 2 2 2 
2 2 2 2 2 2 2 2 2 
2 2 2 2 2 2 2 2 2 
2 2 2 2 2 2 2 2 2 
2 2 2 2 2 2 2 2 2 
2 2 2 2 2 2 2 2 2 
2 2 2 2 2 2 2 2 2 
2 2 2 2 2 2 2 2 2 
2 2 2 2 2 2 2 2 2 
2 2 2 2 2 2 2 2 2 
2 2 2 2 2 2 2 2 2 
2 2 2 2 2 2 2 2 2 
2 2 2 2 2 2 2 2 2 
2 2 2 2 2 2 2 2 2 
2 2 2 2 2 2 2 2 2 
2 2 2 2 2 2 2 2 2 
2 2 2 2 2 2 2 2 2 
2 2 2 2 2 2 2 2 2 
2 2 2 2 2 2 2 2 2 
2 2 2 2 2 2 2 2 2 
2 2 2 2 2 2 2 2 2 
2 2 2 2 2 2 2 2 2 
2 2 2 2 2 2 2 2 2 
2 2 2 2 2 2 2 2 2 
2 2 2 2 2 2 2 2 2 
2 2 2 2 2 2 2 2 2 
2 2 2 2 2 2 2 2 2 
2 2 2 2 2 2 2 2 2 
2 2 2 2 2 2 2 2 2 
2 2 2 2 2 2 2 2 2 
2 2 2 2 2 2 2 2 2 
2 2 2 2 2 2 2 2 2 
2 2 2 2 2 2 2 2 2 
2 2 2 2 2 2 2 2 2 
2 2 2 2 2 2 2 2 2 
2 2 2 2 2 2 2 2 2 
2 2 2 2 2 2 2 2 2 
2 2 2 2 2 2 2 2 2 
2 2 2 2 2 2 2 2 2 
2 2 2 2 2 2 2 2 2 
2 2 2 2 2 2 2 2 2 
2 2 2 2 2 2 2 2 2 
2 2 2 2 2 2 2 2 2 
2 2 2 2 2 2 2 2 2 
2 2 2 2 2 2 2 2 2 
2 2 2 2 2 2 2 2 2 
2 2 2 2 2 2 2 2 2 
2 2 2 2 2 2 2 2 2 
2 2 2 2 2 2 2 2 2 
2 2 2 2 2 2 2 2 2 
2 2 2 2 2 2 2 2 2 
2 2 2 2 2 2 2 2 2 
2 2 2 2 2 2 2 2 2 
2 2 2 2 2 2 2 2 2 
2 2 2 2 2 2 2 2 2 
2 2 2 2 2 2 2 2 2 
2 2 2 2 2 2 2 2 2 
2 2 2 2 2 2 2 2 2 
2 2 2 2 2 2 2 2 2 
2 2 2 2 2 2 2 2 2 
2 2 2 2 2 2 2 2 2 
2 2 2 2 2 2 2 2 2 
2 2 2 2 2 2 2 2 2 
2 2 2 2 2 2 2 2 2 
2 2 2 2 2 2 2 2 2 
2 2 2 2 2 2 2 2 2 
2 2 2 2 2 2 2 2 2 
2 2 2 2 2 2 2 2 2 
2 2 2 2 2 2 2 2 2 
2 2 2 2 2 2 2 2 2 
2 2 2 2 2 2 2 2 2 
2 2 2 2 2 2 2 2 2 
2 2 2 2 2 2 2 2 2 
2 2 2 2 2 2 2 2 2 
2 2 2 2 2 2 2 2 2 
2 2 2 2 2 2 2 2 2 
2 2 2 2 2 2 2 2 2 
2 2 2 2 2 2 2 2 2 
2 2 2 2 2 2 2 2 2 
2 2 2 2 2 2 2 2 2 
2 2 2 2 2 2 2 2 2 
2 2 2 2 2 2 2 2 2 
2 2 2 2 2 2 2 2 2 
2 2 2 2 2 2 2 2 2 
2 2 2 2 2 2 2 2 2 
2 2 2 2 2 2 2 2 2 
2 2 2 2 2 2 2 2 2 
2 2 2 2 2 2 2 2 2 
2 2 2 2 2 2 2 2 2 
2 2 2 2 2 2 2 2 2 
2 2 2 2 2 2 2 2 2 
2 2 2 2 2 2 2 2 2 
2 2 2 2 2 2 2 2 2 
2 2 2 2 2 2 2 2 2 
2 2 2 2 2 2 2 2 2 
2 2 2 2 2 2 2 2 2 
2 2 2 2 2 2 2 2 2 
2 2 2 2 2 2 2 2 2 
2 2 2 2 2 2 2 2 2 
2 2 2 2 2 2 2 2 2 
2 2 2 2 2 2 2 2 2 
2 2 2 2 2 2 2 2 2 
2 2 2 2 2 2 2 2 2 
2 2 2 2 2 2 2 2 2 
2 2 2 2 2 2 2 2 2 
2 2 2 2 2 2 2 2 2 
2 2 2 2 2 2 2 2 2 
2 2 2 2 2 2 2 2 2 
2 2 2 2 2 2 2 2 2 
2 2 2 2 2 2 2 2 2 
2 2 2 2 2 2 2 2 2 
2 2 2 2 2 2 2 2 2 
2 2 2 2 2 2 2 2 2 
2 2 2 2 2 2 2 2 2 
2 2 2 2 2 2 2 2 2 
2 2 2 2 2 2 2 2 2 
2 2 2 2 2 2 2 2 2 
2 2 2 2 2 2 2 2 2 
2 2 2 2 2 2 2 2 2 
2 2 2 2 2 2 2 2 2 
2 2 2 2 2 2 2 2 2 
2 2 2 2 2 2 2 2 2 
2 2 2 2 2 2 2 2 2 
2 2 2 2 2 2 2 2 2 
2 2 2 2 2 2 2 2 2 
2 2 2 2 2 2 2 2 2 
2 2 2 2 2 2 2 2 2 
2 2 2 2 2 2 2 2 2 
2 2 2 2 2 2 2 2 2 
2 2 2 2 2 2 2 2 2 
2 2 2 2 2 2 2 2 2 
2 2 2 2 2 2 2 2 2 
2 2 2 2 2 2 2 2 2 
2 2 2 2 2 2 2 2 2 
2 2 2 2 2 2 2 2 2 
2 2 2 2 2 2 2 2 2 
2 2 2 2 2 2 2 2 2 
2 2 2 2 2 2 2 2 2 
2 2 2 2 2 2 2 2 2 
2 2 2 2 2 2 2 2 2 
2 2 2 2 2 2 2 2 2 
2 2 2 2 2 2 2 2 2 
2 2 2 2 2 2 2 2 2 
2 2 2 2 2 2 2 2 2 
2 2 2 2 2 2 2 2 2 
2 2 2 2 2 2 2 2 2 
2 2 2 2 2 2 2 2 2 
2 2 2 2 2 2 2 2 2 
2 2 2 2 2 2 2 2 2 
2 2 2 2 2 2 2 2 2 
2 2 2 2 2 2 2 2 2 
2 2 2 2 2 2 2 2 2 
2 2 2 2 2 2 2 2 2 
2 2 2 2 2 2 2 2 2 
2 2 2 2 2 2 2 2 2 
2 2 2 2 2 2 2 2 2 
2 2 2 2 2 2 2 2 2 
2 2 2 2 2 2 2 2 2 
2 2 2 2 2 2 2 2 2 
2 2 2 2 2 2 2 2 2 
2 2 2 2 2 2 2 2 2 
2 2 2 2 2 2 2 2 2 
2 2 2 2 2 2 2 2 2 
2 2 2 2 2 2 2 2 2 
2 2 2 2 2 2 2 2 2 
2 2 2 2 2 2 2 2 2 
2 2 2 2 2 2 2 2 2 
2 2 2 2 2 2 2 2 2 
2 2 2 2 2 2 2 2 2 
2 2 2 2 2 2 2 2 2 
2 2 2 2 2 2 2 2 2 
2 2 2 1 1 1 1 1 1 
1 1 1 1 1 1 1 1 1 
1 1 1 1 1 1 1 1 1 
1 1 1 1 1 1 1 1 1 
1 1 1 1 1 1 1 1 1 
1 1 1 1 1 1 1 1 1 
1 1 1 1 1 1 1 1 1 
1 1 1 1 1 1 1 1 1 
1 1 1 1 1 1 1 1 1 
1 1 1 1 1 1 1 1 1 
1 1 1 1 1 1 1 1 1 
1 1 1 1 1 1 1 1 1 
1 1 1 1 1 1 1 1 1 
1 1 1 1 1 1 1 1 1 
1 1 1 1 1 1 1 1 1 
1 1 1 1 1 1 1 1 1 
1 1 1 1 1 1 1 1 1 
1 1 1 1 1 1 1 1 1 
1 1 1 1 1 1 1 1 1 
1 1 1 1 1 1 1 1 1 
1 1 1 1 1 1 1 1 1 
1 1 1 1 1 1 1 1 1 
1 1 1 1 1 1 1 1 1 
1 1 1 1 1 1 1 1 1 
1 1 1 1 1 1 1 1 1 
1 1 1 1 1 1 1 1 1 
1 1 1 1 1 1 1 1 1 
1 1 1 1 1 1 1 1 1 
1 1 1 1 1 1 1 1 1 
1 1 1 1 1 1 1 1 1 
1 1 1 1 1 1 1 1 1 
1 1 1 1 1 1 1 1 1 
1 1 1 1 1 1 1 1 1 
1 1 1 1 1 1 1 1 1 
1 1 1 1 1 1 1 1 1 
1 1 1 1 1 1 1 1 1 
1 1 1 1 1 1 1 1 1 
1 1 1 1 1 1 1 1 1 
1 1 1 1 1 1 1 1 1 
1 1 1 1 1 1 1 1 1 
1 1 1 1 1 1 1 1 1 
1 1 1 1 1 1 1 1 1 
1 1 1 1 1 1 1 1 1 
1 1 1 1 1 1 1 1 1 
1 1 1 1 1 1 1 1 1 
1 1 1 1 1 1 1 1 1 
1 1 1 1 1 1 1 1 1 
1 1 1 1 1 1 1 1 1 
1 1 1 1 1 1 1 1 1 
1 1 1 1 1 1 1 1 1 
1 1 1 1 1 1 1 1 1 
1 1 1 1 1 1 1 1 1 
1 1 1 1 1 1 1 1 1 
1 1 1 1 1 1 1 1 1 
1 1 1 1 1 1 1 1 1 
1 1 1 1 1 1 1 1 1 
1 1 1 1 1 1 1 1 1 
1 1 1 1 1 1 1 1 1 
1 1 1 1 1 1 1 1 1 
1 1 1 1 1 1 1 1 1 
1 1 1 1 1 1 1 1 1 
1 1 1 1 1 1 1 1 1 
1 1 1 1 1 1 1 1 1 
1 1 1 1 1 1 1 1 1 
1 1 1 1 1 1 1 1 1 
1 1 1 1 1 1 1 1 1 
1 1 1 1 1 1 1 1 1 
1 1 1 1 1 1 1 1 1 
1 1 1 1 1 1 1 1 1 
1 1 1 1 1 1 1 1 1 
1 1 1 1 1 1 1 1 1 
1 1 1 1 1 1 1 1 1 
1 1 1 1 1 1 1 1 1 
1 1 1 1 1 1 1 1 1 
1 1 1 1 1 1 1 1 1 
1 1 1 1 1 1 1 1 1 
1 1 1 1 1 1 1 1 1 
1 1 1 1 1 1 1 1 1 
1 1 1 1 1 1 1 1 1 
1 1 1 1 1 1 1 1 1 
1 1 1 1 1 1 1 1 1 
1 1 1 1 1 1 1 1 1 
1 1 1 1 1 1 1 1 1 
1 1 1 1 1 1 1 1 1 
1 1 1 1 1 1 1 1 1 
1 1 1 1 1 1 1 1 1 
1 1 1 1 1 1 1 1 1 
1 1 1 1 1 1 1 1 1 
1 1 1 1 1 1 1 1 1 
1 1 1 1 1 1 1 1 1 
1 1 1 1 1 1 1 1 1 
1 1 1 1 1 1 1 1 1 
1 1 1 1 1 1 1 1 1 
1 1 1 1 1 1 1 1 1 
1 1 1 1 1 1 1 1 1 
1 1 1 1 1 1 1 1 1 
1 1 1 1 1 1 1 1 1 
1 1 1 1 1 1 1 1 1 
1 1 1 1 1 1 1 1 1 
1 1 1 1 1 1 1 1 1 
1 1 1 1 1 1 1 1 1 
1 1 1 1 1 1 1 1 1 
1 1 1 1 1 1 1 1 1 
1 1 1 1 1 1 1 1 1 
1 1 1 1 1 1 1 1 1 
1 1 1 1 1 1 
METADATA
INFORMATION 0

POINT_DATA 2434
SCALARS u double
LOOKUP_TABLE default
0 14.597184 9.025582 0 0 5.724099 15.822317 0.36064 0.721039 
1.081205 1.440841 1.799962 2.15835 2.516157 2.87321 3.229616 3.585519 3.941024 
4.296326 4.651628 5.007153 5.363113 5.719649 6.076908 6.434962 6.793721 7.152952 
7.51242 7.871703 8.230306 8.587502 8.942603 9.294942 9.64377 9.98834 10.327949 
10.662041 10.990044 11.311112 11.625453 11.932341 12.231613 12.522957 12.806396 13.081677 
13.348848 13.608142 13.85974 14.103436 14.339639 14.568626 14.790822 15.006759 15.216577 
15.421517 15.622705 15.720944 15.620845 15.521607 15.425154 15.330456 15.23953 15.151078 
15.065889 14.984308 14.906641 14.831872 14.761791 14.695035 14.632651 14.574752 14.521159 
14.472111 14.427187 14.386878 14.350822 14.319559 14.293302 14.271162 14.25395 14.241458 
14.233633 14.230491 14.231945 14.237652 14.24799 14.26329 14.28259 14.306385 14.33475 
14.366686 14.403772 14.444627 14.490103 14.540747 14.589876 14.57296 14.549317 14.519858 
14.485238 14.445454 14.400683 14.351053 14.296196 14.236159 14.170428 14.098708 14.020546 
13.935182 13.842236 13.740353 13.628951 13.506224 13.37115 13.221102 13.054325 12.866831 
12.655394 12.41368 12.134023 11.804822 11.406463 10.907574 10.247098 8.624874 8.265138 
7.928722 7.618459 7.329703 7.063517 6.819963 6.597414 6.397116 6.21781 6.059888 
5.922986 5.807209 5.713732 5.641253 5.592357 5.567935 5.571588 5.611639 5.518022 
5.319164 5.112768 4.895447 4.666195 4.424674 4.170873 3.904976 3.627309 3.338323 
3.038576 2.728736 2.409577 2.081976 1.746913 1.40546 1.058776 0.70809 0.354743 
0 0 0 0 0 0 0 0 0 
0 0 0 0 0 0 0 0 0 
0 8.76843 8.574635 8.389152 8.199502 8.000111 7.787039 7.557217 7.307887 
7.036411 6.739743 6.414149 6.05514 5.656896 5.211366 4.708723 4.136656 3.46443 
2.657467 1.625911 0 0 0 0 0 0 0 
0 0 0 0 0 0 0 0 0 
0 0 0 14.437487 6.166976 14.259666 12.06803 14.170667 13.637308 
10.458295 6.61716 13.412708 8.69344 14.101656 4.568438 6.939439 3.729204 14.768635 
5.791911 6.185126 14.196603 5.174882 13.079952 3.478208 6.115231 6.531338 0.330025 
6.416903 6.828606 6.695155 7.098401 7.257552 7.510336 7.68537 7.920524 8.104599 
8.323382 8.511896 8.715911 8.90565 9.096458 9.285082 9.464114 9.649867 9.818415 
9.999951 10.159179 10.335454 10.486409 10.656611 10.514535 10.828773 10.695939 10.800235 
11.002446 10.879137 11.177144 11.063562 11.352357 11.248629 11.459941 11.527558 11.433739 
11.702215 11.618291 11.875795 6.955274 10.638355 10.945541 8.914578 11.801692 12.047779 
10.791501 11.092666 12.118055 11.983361 12.217659 11.733326 7.309015 10.946056 11.241751 
12.162739 12.384953 12.339295 12.549203 11.102215 11.392934 2.234751 14.360891 14.290096 
2.341561 10.953385 6.57398 6.822487 6.45743 6.695195 6.341287 6.570065 6.223432 
12.51253 12.709984 12.7452 11.260164 11.546344 11.672857 11.822143 11.942073 12.087629 
12.200717 12.342915 12.448955 10.963593 12.588149 12.894016 6.445018 6.102874 6.79604 
12.681981 12.483237 12.23616 12.928155 12.224985 12.68698 11.128029 10.826038 0.282652 
15.044673 14.349736 6.665534 7.019005 12.823503 13.065461 0.332539 12.661634 12.461819 
10.996654 10.689653 13.098822 12.915 12.784664 6.88454 7.239132 8.710432 10.866121 
10.554488 13.005114 12.88102 13.049168 12.963664 13.225036 7.101946 7.456774 6.750447 
12.649446 12.44884 13.093669 12.975862 13.187147 13.107454 13.257846 13.18049 13.068999 
13.328917 13.254863 13.138722 7.317877 7.672366 10.736466 10.420543 11.04395 13.29705 
13.184893 13.2654 13.342413 13.37335 13.347403 12.645986 12.444937 12.232303 12.227418 
11.998322 11.991762 11.745158 11.736041 11.470815 11.458037 11.173024 11.155212 10.849224 
12.832001 10.884138 10.540065 10.824697 10.592688 10.229227 5.887913 5.769238 5.562003 
5.442674 5.243213 5.121212 4.928862 4.802821 4.993867 4.671675 4.861891 4.53612 
4.350171 4.210621 4.028213 3.8845 3.70492 3.557063 3.379657 3.227815 4.067546 
3.052007 2.896436 3.07365 13.160243 10.300031 9.918222 10.007552 13.296386 10.234244 
10.096614 9.905863 2.738921 2.917374 13.474461 13.405877 13.179416 7.532573 7.886372 
10.919684 11.22339 13.48506 13.46574 8.15422 2.721739 2.878992 13.592833 13.579896 
13.541457 13.348224 13.335853 13.102716 13.560475 11.995831 12.837522 11.148942 10.811777 
13.009062 2.579614 2.759158 3.849701 12.760988 2.54944 9.608571 9.716659 7.59723 
13.249407 13.059739 9.835284 13.612323 13.69656 13.689758 13.023002 13.180264 11.155549 
10.81186 13.495716 13.718634 7.746346 8.099255 7.393472 11.104416 11.404661 13.428795 
2.418628 2.708644 2.379362 2.599129 2.940887 2.216818 9.301799 9.428785 0.308394 
0.298462 15.032757 14.409428 7.606892 7.254462 13.202046 13.34531 13.796164 13.795251 
13.155421 12.963968 13.046656 11.240272 2.256047 13.526194 5.358952 10.10249 2.781675 
3.124838 11.176576 10.826556 10.432462 13.658982 13.880318 13.933489 14.093857 11.2909 
11.587955 10.985737 13.598179 2.046656 11.696456 11.876671 8.999451 9.145401 10.437878 
2.076577 13.891605 13.896337 14.140513 1.88129 8.239911 8.451102 2.540773 8.855394 
13.066356 12.873028 7.467479 7.115052 2.966306 3.311011 13.233602 13.080712 11.177204 
10.867295 11.19085 6.90302 6.763559 6.553133 6.413423 6.205126 6.064864 5.859083 
5.717899 5.51487 5.372373 11.492789 11.533528 11.821787 12.061721 12.761601 2.866266 
13.694402 13.893276 10.012776 1.911646 13.982877 13.993017 13.907664 8.703134 8.868043 
9.2926 5.172189 5.028004 12.668449 12.547935 12.787038 2.700968 3.022134 11.76429 
11.979626 12.156892 14.299856 14.070012 13.757805 13.667609 14.257827 14.462952 12.059282 
12.336736 14.085334 1.224217 14.475918 1.256403 8.414551 10.005116 10.459544 1.733063 
5.922709 11.063515 10.748998 1.710803 1.543131 5.292076 14.205393 4.830638 7.654924 
5.654982 13.237101 13.393731 13.489182 13.539782 13.625572 13.675585 13.75188 13.450829 
13.069498 4.684447 6.214698 8.591909 8.800739 8.661673 9.009117 8.872099 9.21753 
9.032518 9.440561 2.859825 3.176034 7.201694 13.825614 13.59797 1.878034 2.538175 
10.514266 11.344558 14.174114 12.881888 14.231547 13.919962 10.37389 13.689725 9.986126 
3.036947 4.45232 11.34268 9.820047 8.229083 6.314392 12.7029 2.620661 6.945419 
13.847513 13.385379 12.847231 9.480039 3.466989 6.174211 14.563347 7.876226 10.653465 
4.043491 14.237465 8.145099 10.549987 10.427456 13.167656 14.884371 5.646064 11.79106 
15.309963 14.340709 1.541455 1.710637 13.801392 13.731279 14.153078 14.425322 9.082822 
8.735593 14.173373 14.106928 12.244396 12.519227 13.853069 13.795566 14.339957 14.18527 
14.060827 13.818524 9.548019 9.585349 1.566 1.745326 10.012582 10.499675 0.317042 
9.196138 8.779822 9.588958 9.824435 12.605756 12.785776 12.43724 12.114481 12.944193 
12.580145 9.352798 3.153034 3.499381 5.227565 5.852937 6.974843 13.76953 11.88078 
12.140994 13.275592 13.125929 13.41315 12.914469 12.962872 10.949754 1.372913 1.544098 
1.39767 1.57762 1.388219 9.091454 9.158227 11.261664 4.725854 13.734352 8.941089 
8.73441 1.715162 13.453211 12.254068 12.082278 2.873939 1.374949 10.036969 7.929189 
8.825358 7.720032 13.953352 13.901631 13.856598 14.620279 14.232186 13.868351 13.824919 
9.509704 13.876439 14.377942 14.227945 5.055828 12.706138 13.1287 6.343596 3.338498 
3.486687 3.65013 3.791884 3.957341 4.092001 12.733431 12.784878 3.253447 13.265347 
12.535883 9.426417 11.702104 11.128464 11.591831 10.639033 10.463289 13.582537 6.685276 
9.959815 10.185804 7.154948 4.48977 12.866338 13.044021 1.228047 1.408513 1.759192 
13.959893 13.930332 13.894414 1.594356 1.9431 8.948324 8.599197 3.341761 3.689782 
2.993078 10.561055 10.979188 14.199722 14.134956 14.594707 14.385751 12.216609 12.449067 
13.024178 13.32874 12.968381 13.224589 12.432075 12.151563 1.204143 14.413569 14.268355 
14.656085 14.21284 10.080395 1.261647 14.777442 1.204809 8.637887 8.733651 14.058627 
14.012578 13.847312 13.963863 13.790521 13.912638 14.085126 11.15216 3.929553 4.221436 
4.387786 4.508286 3.3277 1.378004 1.715727 4.91898 13.655417 13.502658 10.225751 
14.039321 14.211098 4.680504 4.791591 9.083168 8.879128 4.616566 13.859037 8.958646 
8.536114 9.737622 14.082148 12.496837 12.361145 12.630493 2.700369 12.694766 1.548244 
1.206172 1.88853 10.287764 11.779416 9.233673 8.836006 8.313519 8.442403 13.581354 
7.82022 7.680831 10.064004 10.414604 8.526405 8.673488 9.026559 8.823936 9.177147 
8.978287 9.331255 8.618721 12.648276 12.425763 12.860902 12.700055 9.960444 8.776745 
8.409949 8.254228 3.845109 4.0375 8.038616 11.075857 14.560853 1.77888 12.331864 
14.563222 1.032306 14.169065 10.851214 11.461938 13.966703 14.101924 14.28329 14.307486 
14.446685 1.036722 7.408116 7.640956 13.995233 13.961371 13.862982 13.935207 14.023837 
14.003805 14.008914 13.931451 14.09174 7.901975 8.057289 8.54953 1.049099 0.877731 
0.301741 0.317328 15.433431 14.50489 7.172142 7.509667 1.552108 4.344736 5.777544 
9.52373 9.676372 9.489137 9.832202 5.252969 4.635677 4.297573 12.903441 10.099458 
9.862611 4.972172 5.073833 4.892951 5.163543 5.359103 4.443351 4.10804 10.096557 
13.672988 3.504845 12.850215 13.685405 13.745271 13.024895 14.248957 14.374562 13.606713 
14.032848 14.062959 13.951014 13.983573 13.861189 13.89653 13.763023 13.801452 13.733023 
13.656048 13.697837 8.576539 12.269605 9.886514 9.520198 13.608178 11.294191 13.038947 
10.304809 9.973332 12.787237 12.322543 12.191531 12.302206 12.059447 11.945149 12.177535 
11.926589 10.306548 10.645235 10.550965 10.876724 8.316387 1.887952 12.788963 10.796174 
11.108117 11.041118 11.338482 8.213601 7.679627 11.181352 11.284772 9.286259 10.743963 
11.566133 13.837125 5.387607 5.588994 12.542335 9.650927 11.56692 11.615443 13.581789 
13.428059 13.725463 5.722196 5.927818 6.060506 13.755413 7.886958 12.776666 6.270034 